REMARK SMILES C=C(C)[C@@H]1CC=C(C)C(=O)C1
REMARK SMILES IDX 10 1 4 2 11 3 5 4 9 5 6 6 7 7 8 8 2 9 3 10 1 11
REMARK H PARENT
ROOT
ATOM      1  O   UNL     1       2.091   1.887  -0.020  1.00  0.00    -0.295 OA
ATOM      2  C   UNL     1      -0.917  -0.083  -0.320  1.00  0.00     0.025 C 
ATOM      3  C   UNL     1      -0.120   1.045   0.330  1.00  0.00     0.089 C 
ATOM      4  C   UNL     1      -0.383  -1.447   0.130  1.00  0.00     0.036 C 
ATOM      5  C   UNL     1       1.363   0.898   0.057  1.00  0.00     0.158 C 
ATOM      6  C   UNL     1       1.111  -1.532   0.024  1.00  0.00    -0.019 C 
ATOM      7  C   UNL     1       1.938  -0.478  -0.043  1.00  0.00    -0.012 C 
ATOM      8  C   UNL     1       3.422  -0.604  -0.183  1.00  0.00     0.048 C 
ENDROOT
BRANCH   2   9
ATOM      9  C   UNL     1      -2.377   0.056  -0.017  1.00  0.00    -0.077 C 
ATOM     10  C   UNL     1      -3.282   0.251  -1.197  1.00  0.00     0.039 C 
ATOM     11  C   UNL     1      -2.848   0.009   1.238  1.00  0.00     0.008 C 
ENDBRANCH   2   9
TORSDOF 1
