REMARK SMILES C=C(C)[C@@H]1CC=C(C)CC1
REMARK SMILES IDX 4 1 10 2 5 3 9 4 7 5 6 6 8 7 2 8 3 9 1 10
REMARK H PARENT
ROOT
ATOM      1  C   UNL     1       0.719  -0.043  -0.366  1.00  0.00     0.018 C 
ATOM      2  C   UNL     1       0.042  -1.208   0.353  1.00  0.00     0.013 C 
ATOM      3  C   UNL     1       0.038   1.284  -0.018  1.00  0.00     0.035 C 
ATOM      4  C   UNL     1      -1.441  -1.299  -0.017  1.00  0.00     0.031 C 
ATOM      5  C   UNL     1      -2.140   0.038  -0.038  1.00  0.00    -0.077 C 
ATOM      6  C   UNL     1      -1.460   1.197  -0.022  1.00  0.00    -0.027 C 
ATOM      7  C   UNL     1      -3.639  -0.002  -0.080  1.00  0.00     0.039 C 
ENDROOT
BRANCH   1   8
ATOM      8  C   UNL     1       2.167   0.006   0.013  1.00  0.00    -0.077 C 
ATOM      9  C   UNL     1       3.150  -0.170  -1.107  1.00  0.00     0.039 C 
ATOM     10  C   UNL     1       2.563   0.197   1.280  1.00  0.00     0.008 C 
ENDBRANCH   1   8
TORSDOF 1
