REMARK SMILES CCOC(=O)C[C@H](SP(=S)(OC)OC)C(=O)OCC
REMARK SMILES IDX 7 1 8 2 9 3 10 4 11 5 12 6 13 7 14 8 6 9 4 10 5 11 3 12 2 13
REMARK SMILES IDX 1 14 15 15 16 16 17 17 18 18 19 19
REMARK H PARENT
ROOT
ATOM      1  C   UNL     1       0.321   0.202  -0.189  1.00  0.00     0.177 C 
ENDROOT
BRANCH   1   2
ATOM      2  S   UNL     1      -0.265  -1.353  -0.947  1.00  0.00    -0.054 SA
BRANCH   2   3
ATOM      3  P   UNL     1      -2.202  -1.657  -0.135  1.00  0.00     0.247 P 
ATOM      4  S   UNL     1      -3.053  -3.403  -0.408  1.00  0.00    -0.026 S 
BRANCH   3   5
ATOM      5  O   UNL     1      -3.145  -0.427  -0.656  1.00  0.00    -0.325 OA
ATOM      6  C   UNL     1      -3.509  -0.332  -2.024  1.00  0.00     0.204 C 
ENDBRANCH   3   5
BRANCH   3   7
ATOM      7  O   UNL     1      -2.138  -1.238   1.444  1.00  0.00    -0.325 OA
ATOM      8  C   UNL     1      -1.404  -2.028   2.366  1.00  0.00     0.204 C 
ENDBRANCH   3   7
ENDBRANCH   2   3
ENDBRANCH   1   2
BRANCH   1   9
ATOM      9  C   UNL     1       1.741   0.545  -0.645  1.00  0.00     0.149 C 
BRANCH   9  10
ATOM     10  C   UNL     1       2.812  -0.251   0.071  1.00  0.00     0.307 C 
ATOM     11  O   UNL     1       2.605  -1.138   0.888  1.00  0.00    -0.252 OA
BRANCH  10  12
ATOM     12  O   UNL     1       4.039   0.202  -0.324  1.00  0.00    -0.466 OA
BRANCH  12  13
ATOM     13  C   UNL     1       5.160  -0.440   0.293  1.00  0.00     0.229 C 
ATOM     14  C   UNL     1       6.436   0.172  -0.247  1.00  0.00     0.049 C 
ENDBRANCH  12  13
ENDBRANCH  10  12
ENDBRANCH   9  10
ENDBRANCH   1   9
BRANCH   1  15
ATOM     15  C   UNL     1      -0.625   1.331  -0.555  1.00  0.00     0.320 C 
ATOM     16  O   UNL     1      -0.819   1.761  -1.684  1.00  0.00    -0.251 OA
BRANCH  15  17
ATOM     17  O   UNL     1      -1.202   1.814   0.588  1.00  0.00    -0.465 OA
BRANCH  17  18
ATOM     18  C   UNL     1      -2.100   2.914   0.408  1.00  0.00     0.229 C 
ATOM     19  C   UNL     1      -2.650   3.327   1.757  1.00  0.00     0.049 C 
ENDBRANCH  17  18
ENDBRANCH  15  17
ENDBRANCH   1  15
TORSDOF 11
